# vtk DataFile Version 3.0
MOAB 5.2.1
ASCII
DATASET UNSTRUCTURED_GRID
POINTS 1309 double
0 0 0
0 1 0
1 0 0
0 0.02173913043 0
0 0.04347826087 0
0 0.0652173913 0
0 0.08695652174 0
0 0.1086956522 0
0 0.1304347826 0
0 0.152173913 0
0 0.1739130435 0
0 0.1956521739 0
0 0.2173913043 0
0 0.2391304348 0
0 0.2608695652 0
0 0.2826086957 0
0 0.3043478261 0
0 0.3260869565 0
0 0.347826087 0
0 0.3695652174 0
0 0.3913043478 0
0 0.4130434783 0
0 0.4347826087 0
0 0.4565217391 0
0 0.4782608696 0
0 0.5 0
0 0.5217391304 0
0 0.5434782609 0
0 0.5652173913 0
0 0.5869565217 0
0 0.6086956522 0
0 0.6304347826 0
0 0.652173913 0
0 0.6739130435 0
0 0.6956521739 0
0 0.7173913043 0
0 0.7391304348 0
0 0.7608695652 0
0 0.7826086957 0
0 0.8043478261 0
0 0.8260869565 0
0 0.847826087 0
0 0.8695652174 0
0 0.8913043478 0
0 0.9130434783 0
0 0.9347826087 0
0 0.9565217391 0
0 0.9782608696 0
0.9848484848 0.01515151515 0
0.9696969697 0.0303030303 0
0.9545454545 0.04545454545 0
0.9393939394 0.06060606061 0
0.9242424242 0.07575757576 0
0.9090909091 0.09090909091 0
0.8939393939 0.1060606061 0
0.8787878788 0.1212121212 0
0.8636363636 0.1363636364 0
0.8484848485 0.1515151515 0
0.8333333333 0.1666666667 0
0.8181818182 0.1818181818 0
0.803030303 0.196969697 0
0.7878787879 0.2121212121 0
0.7727272727 0.2272727273 0
0.7575757576 0.2424242424 0
0.7424242424 0.2575757576 0
0.7272727273 0.2727272727 0
0.7121212121 0.2878787879 0
0.696969697 0.303030303 0
0.6818181818 0.3181818182 0
0.6666666667 0.3333333333 0
0.6515151515 0.3484848485 0
0.6363636364 0.3636363636 0
0.6212121212 0.3787878788 0
0.6060606061 0.3939393939 0
0.5909090909 0.4090909091 0
0.5757575758 0.4242424242 0
0.5606060606 0.4393939394 0
0.5454545455 0.4545454545 0
0.5303030303 0.4696969697 0
0.5151515152 0.4848484848 0
0.5 0.5 0
0.4848484848 0.5151515152 0
0.4696969697 0.5303030303 0
0.4545454545 0.5454545455 0
0.4393939394 0.5606060606 0
0.4242424242 0.5757575758 0
0.4090909091 0.5909090909 0
0.3939393939 0.6060606061 0
0.3787878788 0.6212121212 0
0.3636363636 0.6363636364 0
0.3484848485 0.6515151515 0
0.3333333333 0.6666666667 0
0.3181818182 0.6818181818 0
0.303030303 0.696969697 0
0.2878787879 0.7121212121 0
0.2727272727 0.7272727273 0
0.2575757576 0.7424242424 0
0.2424242424 0.7575757576 0
0.2272727273 0.7727272727 0
0.2121212121 0.7878787879 0
0.196969697 0.803030303 0
0.1818181818 0.8181818182 0
0.1666666667 0.8333333333 0
0.1515151515 0.8484848485 0
0.1363636364 0.8636363636 0
0.1212121212 0.8787878788 0
0.1060606061 0.8939393939 0
0.09090909091 0.9090909091 0
0.07575757576 0.9242424242 0
0.06060606061 0.9393939394 0
0.04545454545 0.9545454545 0
0.0303030303 0.9696969697 0
0.01515151515 0.9848484848 0
0.02173913043 0 0
0.04347826087 0 0
0.0652173913 0 0
0.08695652174 0 0
0.1086956522 0 0
0.1304347826 0 0
0.152173913 0 0
0.1739130435 0 0
0.1956521739 0 0
0.2173913043 0 0
0.2391304348 0 0
0.2608695652 0 0
0.2826086957 0 0
0.3043478261 0 0
0.3260869565 0 0
0.347826087 0 0
0.3695652174 0 0
0.3913043478 0 0
0.4130434783 0 0
0.4347826087 0 0
0.4565217391 0 0
0.4782608696 0 0
0.5 0 0
0.5217391304 0 0
0.5434782609 0 0
0.5652173913 0 0
0.5869565217 0 0
0.6086956522 0 0
0.6304347826 0 0
0.652173913 0 0
0.6739130435 0 0
0.6956521739 0 0
0.7173913043 0 0
0.7391304348 0 0
0.7608695652 0 0
0.7826086957 0 0
0.8043478261 0 0
0.8260869565 0 0
0.847826087 0 0
0.8695652174 0 0
0.8913043478 0 0
0.9130434783 0 0
0.9347826087 0 0
0.9565217391 0 0
0.9782608696 0 0
0.6762723422 0.2974844635 0
0.6611208271 0.3126359786 0
0.6459693119 0.3277874938 0
0.6308177968 0.3429390089 0
0.6156662816 0.3580905241 0
0.6005147665 0.3732420392 0
0.5853632513 0.3883935544 0
0.5702117362 0.4035450695 0
0.555060221 0.4186965847 0
0.5399087059 0.4338480998 0
0.5247571907 0.448999615 0
0.5096056756 0.4641511301 0
0.4944541604 0.4793026453 0
0.4793026453 0.4944541604 0
0.4641511301 0.5096056756 0
0.448999615 0.5247571907 0
0.4338480998 0.5399087059 0
0.4186965847 0.555060221 0
0.4035450695 0.5702117362 0
0.3883935544 0.5853632513 0
0.3732420392 0.6005147665 0
0.3580905241 0.6156662816 0
0.3429390089 0.6308177968 0
0.3277874938 0.6459693119 0
0.3126359786 0.6611208271 0
0.2974844635 0.6762723422 0
0.2823329483 0.6914238574 0
0.2671814332 0.7065753726 0
0.252029918 0.7217268877 0
0.2368784029 0.7368784029 0
0.2217268877 0.752029918 0
0.2065753726 0.7671814332 0
0.1914238574 0.7823329483 0
0.1762723422 0.7974844635 0
0.1611208271 0.8126359786 0
0.1459693119 0.8277874938 0
0.1308177968 0.8429390089 0
0.1156662816 0.8580905241 0
0.1005147665 0.8732420392 0
0.08536325134 0.8883935544 0
0.07021173619 0.9035450695 0
0.01882663938 0.9239130435 0
0.02091802314 0.9467830656 0
0.9476580308 0.02222898776 0
0.9338480998 0.03990870588 0
0.9186965847 0.05506022104 0
0.9035450695 0.07021173619 0
0.8883935544 0.08536325134 0
0.8732420392 0.1005147665 0
0.8580905241 0.1156662816 0
0.8429390089 0.1308177968 0
0.8277874938 0.1459693119 0
0.8126359786 0.1611208271 0
0.7974844635 0.1762723422 0
0.7823329483 0.1914238574 0
0.7671814332 0.2065753726 0
0.752029918 0.2217268877 0
0.7368784029 0.2368784029 0
0.7217268877 0.252029918 0
0.7065753726 0.2671814332 0
0.6914238574 0.2823329483 0
0.01891646876 0.03297951266 0
0.01977750165 0.05372272083 0
0.01882663938 0.07608695652 0
0.01882663938 0.09782608696 0
0.01882663938 0.1195652174 0
0.01882663938 0.1413043478 0
0.01882663938 0.1630434783 0
0.01882663938 0.1847826087 0
0.01882663938 0.2065217391 0
0.01882663938 0.2282608696 0
0.01882663938 0.25 0
0.01882663938 0.2717391304 0
0.01882663938 0.2934782609 0
0.01882663938 0.3152173913 0
0.01882663938 0.3369565217 0
0.01882663938 0.3586956522 0
0.01882663938 0.3804347826 0
0.01882663938 0.402173913 0
0.01882663938 0.4239130435 0
0.01882663938 0.4456521739 0
0.01882663938 0.4673913043 0
0.01882663938 0.4891304348 0
0.01882663938 0.5108695652 0
0.01882663938 0.5326086957 0
0.01882663938 0.5543478261 0
0.01882663938 0.5760869565 0
0.01882663938 0.597826087 0
0.01882663938 0.6195652174 0
0.01882663938 0.6413043478 0
0.01882663938 0.6630434783 0
0.01882663938 0.6847826087 0
0.01882663938 0.7065217391 0
0.01882663938 0.7282608696 0
0.01882663938 0.75 0
0.01882663938 0.7717391304 0
0.01882663938 0.7934782609 0
0.01882663938 0.8152173913 0
0.01882663938 0.8369565217 0
0.01882663938 0.8586956522 0
0.01882663938 0.8804347826 0
0.01882663938 0.902173913 0
0.05519682377 0.918828344 0
0.03966085252 0.9338608271 0
0.03032521184 0.01868348499 0
0.05393589713 0.0190447619 0
0.07608695652 0.01882663938 0
0.09782608696 0.01882663938 0
0.1195652174 0.01882663938 0
0.1413043478 0.01882663938 0
0.1630434783 0.01882663938 0
0.1847826087 0.01882663938 0
0.2065217391 0.01882663938 0
0.2282608696 0.01882663938 0
0.25 0.01882663938 0
0.2717391304 0.01882663938 0
0.2934782609 0.01882663938 0
0.3152173913 0.01882663938 0
0.3369565217 0.01882663938 0
0.3586956522 0.01882663938 0
0.3804347826 0.01882663938 0
0.402173913 0.01882663938 0
0.4239130435 0.01882663938 0
0.4456521739 0.01882663938 0
0.4673913043 0.01882663938 0
0.4891304348 0.01882663938 0
0.5108695652 0.01882663938 0
0.5326086957 0.01882663938 0
0.5543478261 0.01882663938 0
0.5760869565 0.01882663938 0
0.597826087 0.01882663938 0
0.6195652174 0.01882663938 0
0.6413043478 0.01882663938 0
0.6630434783 0.01882663938 0
0.6847826087 0.01882663938 0
0.7065217391 0.01882663938 0
0.7282608696 0.01882663938 0
0.75 0.01882663938 0
0.7717391304 0.01882663938 0
0.7934782609 0.01882663938 0
0.8152173913 0.01882663938 0
0.8369565217 0.01882663938 0
0.8586956522 0.01882663938 0
0.8804347826 0.01882663938 0
0.902173913 0.01882663938 0
0.9243840949 0.01905037313 0
0.9125664031 0.03670949107 0
0.0367159449 0.9125590654 0
0.8903651719 0.03751967695 0
0.8700835499 0.03892632204 0
0.8480752005 0.03794466485 0
0.8260869565 0.03765327877 0
0.8043478261 0.03765327877 0
0.7826086957 0.03765327877 0
0.7608695652 0.03765327877 0
0.7391304348 0.03765327877 0
0.7173913043 0.03765327877 0
0.6956521739 0.03765327877 0
0.6739130435 0.03765327877 0
0.652173913 0.03765327877 0
0.6304347826 0.03765327877 0
0.6086956522 0.03765327877 0
0.5869565217 0.03765327877 0
0.5652173913 0.03765327877 0
0.5434782609 0.03765327877 0
0.5217391304 0.03765327877 0
0.5 0.03765327877 0
0.4782608696 0.03765327877 0
0.4565217391 0.03765327877 0
0.4347826087 0.03765327877 0
0.4130434783 0.03765327877 0
0.3913043478 0.03765327877 0
0.3695652174 0.03765327877 0
0.347826087 0.03765327877 0
0.3260869565 0.03765327877 0
0.3043478261 0.03765327877 0
0.2826086957 0.03765327877 0
0.2608695652 0.03765327877 0
0.2391304348 0.03765327877 0
0.2173913043 0.03765327877 0
0.1956521739 0.03765327877 0
0.1739130435 0.03765327877 0
0.152173913 0.03765327877 0
0.1304347826 0.03765327877 0
0.1086956522 0.03765327877 0
0.08695652174 0.03765327877 0
0.06529371359 0.03750214327 0
0.04126058214 0.03935107397 0
0.03752138745 0.8903658649 0
0.03892744506 0.8700831869 0
0.0379446412 0.8480751723 0
0.03765327877 0.8260869565 0
0.03765327877 0.8043478261 0
0.03765327877 0.7826086957 0
0.03765327877 0.7608695652 0
0.03765327877 0.7391304348 0
0.03765327877 0.7173913043 0
0.03765327877 0.6956521739 0
0.03765327877 0.6739130435 0
0.03765327877 0.652173913 0
0.03765327877 0.6304347826 0
0.03765327877 0.6086956522 0
0.03765327877 0.5869565217 0
0.03765327877 0.5652173913 0
0.03765327877 0.5434782609 0
0.03765327877 0.5217391304 0
0.03765327877 0.5 0
0.03765327877 0.4782608696 0
0.03765327877 0.4565217391 0
0.03765327877 0.4347826087 0
0.03765327877 0.4130434783 0
0.03765327877 0.3913043478 0
0.03765327877 0.3695652174 0
0.03765327877 0.347826087 0
0.03765327877 0.3260869565 0
0.03765327877 0.3043478261 0
0.03765327877 0.2826086957 0
0.03765327877 0.2608695652 0
0.03765327877 0.2391304348 0
0.03765327877 0.2173913043 0
0.03765327877 0.1956521739 0
0.03765327877 0.1739130435 0
0.03765327877 0.152173913 0
0.03765327877 0.1304347826 0
0.03765327877 0.1086956522 0
0.03765327877 0.08695652174 0
0.03781947302 0.06444062722 0
0.6858780178 0.2616355936 0
0.701029533 0.2464840784 0
0.7161810481 0.2313325633 0
[...]
POINT_DATA 1309
SCALARS GLOBAL_ID int 1
LOOKUP_TABLE default
21 
22 
23 
24 
25 
26 
27 
28 
29 
30 
31 
32 
33 
34 
35 
36 
37 
38 
39 
40 
41 
42 
43 
44 
45 
46 
47 
48 
49 
50 
51 
52 
53 
54 
55 
56 
57 
58 
59 
60 
61 
62 
63 
64 
65 
66 
67 
68 
69 
70 
71 
72 
73 
74 
75 
76 
77 
78 
79 
80 
81 
82 
83 
84 
85 
86 
87 
88 
89 
90 
91 
92 
93 
94 
95 
96 
97 
98 
99 
100 
101 
102 
103 
104 
105 
106 
107 
108 
109 
110 
111 
112 
113 
114 
115 
116 
117 
118 
119 
120 
121 
122 
123 
124 
125 
126 
127 
128 
129 
130 
131 
132 
133 
134 
135 
136 
137 
138 
139 
140 
141 
142 
143 
144 
145 
146 
147 
148 
149 
150 
151 
152 
153 
154 
155 
156 
157 
158 
159 
160 
161 
162 
163 
164 
165 
166 
167 
168 
169 
170 
171 
172 
173 
174 
175 
176 
177 
178 
179 
180 
181 
182 
183 
184 
185 
186 
187 
188 
189 
190 
191 
192 
193 
194 
195 
196 
197 
198 
199 
200 
201 
202 
203 
204 
205 
206 
207 
208 
209 
210 
211 
212 
213 
214 
215 
216 
217 
218 
219 
220 
221 
222 
223 
224 
225 
226 
227 
228 
229 
230 
231 
232 
233 
234 
235 
236 
237 
238 
239 
240 
241 
242 
243 
244 
245 
246 
247 
248 
249 
250 
251 
252 
253 
254 
255 
256 
257 
258 
259 
260 
261 
262 
263 
264 
265 
266 
267 
268 
269 
270 
271 
272 
273 
274 
275 
276 
277 
278 
279 
280 
281 
282 
283 
284 
285 
286 
287 
288 
289 
290 
291 
292 
293 
294 
295 
296 
297 
298 
299 
300 
301 
302 
303 
304 
305 
306 
307 
308 
309 
310 
311 
312 
313 
314 
315 
316 
317 
318 
319 
320 
321 
322 
323 
324 
325 
326 
327 
328 
329 
330 
331 
332 
333 
334 
335 
336 
337 
338 
339 
340 
341 
342 
343 
344 
345 
346 
347 
348 
349 
350 
351 
352 
353 
354 
355 
356 
357 
358 
359 
360 
361 
362 
363 
364 
365 
366 
367 
368 
369 
370 
371 
372 
373 
374 
375 
376 
377 
378 
379 
380 
381 
382 
383 
384 
385 
386 
387 
388 
389 
390 
391 
392 
393 
394 
395 
396 
397 
398 
399 
400 
401 
402 
403 
404 
405 
406 
407 
408 
409 
410 
411 
412 
413 
414 
415 
416 
417 
418 
419 
420 
421 
422 
423 
424 
425 
426 
427 
428 
429 
430 
431 
432 
433 
434 
435 
436 
437 
438 
439 
440 
441 
442 
443 
444 
445 
446 
447 
448 
449 
450 
451 
452 
453 
454 
455 
456 
457 
458 
459 
460 
461 
462 
463 
464 
465 
466 
467 
468 
469 
470 
471 
472 
473 
474 
475 
476 
477 
478 
479 
480 
481 
482 
483 
484 
485 
486 
487 
488 
489 
490 
491 
492 
493 
494 
495 
496 
497 
498 
499 
500 
501 
502 
503 
504 
505 
506 
507 
508 
509 
510 
511 
512 
513 
514 
515 
516 
517 
518 
519 
520 
521 
522 
523 
524 
525 
526 
527 
528 
529 
530 
531 
532 
533 
534 
535 
536 
537 
538 
539 
540 
541 
542 
543 
544 
545 
546 
547 
548 
549 
550 
551 
552 
553 
554 
555 
556 
557 
558 
559 
560 
561 
562 
563 
564 
565 
566 
567 
568 
569 
570 
571 
572 
573 
574 
575 
576 
577 
578 
579 
580 
581 
582 
583 
584 
585 
586 
587 
588 
589 
590 
591 
592 
593 
594 
595 
596 
597 
598 
599 
600 
601 
602 
603 
604 
605 
606 
607 
608 
609 
610 
611 
612 
613 
614 
615 
616 
617 
618 
619 
620 
621 
622 
623 
624 
625 
626 
627 
628 
629 
630 
631 
632 
633 
634 
635 
636 
637 
638 
639 
640 
641 
642 
643 
644 
645 
646 
647 
648 
649 
650 
651 
652 
653 
654 
655 
656 
657 
658 
659 
660 
661 
662 
663 
664 
665 
666 
667 
668 
669 
670 
671 
672 
673 
674 
675 
676 
677 
678 
679 
680 
681 
682 
683 
684 
685 
686 
687 
688 
689 
690 
691 
692 
693 
694 
695 
696 
697 
698 
699 
700 
701 
702 
703 
704 
705 
706 
707 
708 
709 
710 
711 
712 
713 
714 
715 
716 
717 
718 
719 
720 
721 
722 
723 
724 
725 
726 
727 
728 
729 
730 
731 
732 
733 
734 
735 
736 
737 
738 
739 
740 
741 
742 
743 
744 
745 
746 
747 
748 
749 
750 
751 
752 
753 
754 
755 
756 
757 
758 
759 
760 
761 
762 
763 
764 
765 
766 
767 
768 
769 
770 
771 
772 
773 
774 
775 
776 
777 
778 
779 
780 
781 
782 
783 
784 
785 
786 
787 
788 
789 
790 
791 
792 
793 
794 
795 
796 
797 
798 
799 
800 
801 
802 
803 
804 
805 
806 
807 
808 
809 
810 
811 
812 
813 
814 
815 
816 
817 
818 
819 
820 
821 
822 
823 
824 
825 
826 
827 
828 
829 
830 
831 
832 
833 
834 
835 
836 
837 
838 
839 
840 
841 
842 
843 
844 
845 
846 
847 
848 
849 
850 
851 
852 
853 
854 
855 
856 
857 
858 
859 
860 
861 
862 
863 
864 
865 
866 
867 
868 
869 
870 
871 
872 
873 
874 
875 
876 
877 
878 
879 
880 
881 
882 
883 
884 
885 
886 
887 
888 
889 
890 
891 
892 
893 
894 
895 
896 
897 
898 
899 
900 
901 
902 
903 
904 
905 
906 
907 
908 
909 
910 
911 
912 
913 
914 
915 
916 
917 
918 
919 
920 
921 
922 
923 
924 
925 
926 
927 
928 
929 
930 
931 
932 
933 
934 
935 
936 
937 
938 
939 
940 
941 
942 
943 
944 
945 
946 
947 
948 
949 
950 
951 
952 
953 
954 
955 
956 
957 
958 
959 
960 
961 
962 
963 
964 
965 
966 
967 
968 
969 
970 
971 
972 
973 
974 
975 
976 
977 
978 
979 
980 
981 
982 
983 
984 
985 
986 
987 
988 
989 
990 
991 
992 
993 
994 
995 
996 
997 
998 
999 
1000 
1001 
1002 
1003 
1004 
1005 
1006 
1007 
1008 
1009 
1010 
1011 
1012 
1013 
1014 
1015 
1016 
1017 
1018 
1019 
1020 
1021 
1022 
1023 
1024 
1025 
1026 
1027 
1028 
1029 
1030 
1031 
1032 
1033 
1034 
1035 
1036 
1037 
1038 
1039 
1040 
1041 
1042 
1043 
1044 
1045 
1046 
1047 
1048 
1049 
1050 
1051 
1052 
1053 
1054 
1055 
1056 
1057 
1058 
1059 
1060 
1061 
1062 
1063 
1064 
1065 
1066 
1067 
1068 
1069 
1070 
1071 
1072 
1073 
1074 
1075 
1076 
1077 
1078 
1079 
1080 
1081 
1082 
1083 
1084 
1085 
1086 
1087 
1088 
1089 
1090 
1091 
1092 
1093 
1094 
1095 
1096 
1097 
1098 
1099 
1100 
1101 
1102 
1103 
1104 
1105 
1106 
1107 
1108 
1109 
1110 
1111 
1112 
1113 
1114 
1115 
1116 
1117 
1118 
1119 
1120 
1121 
1122 
1123 
1124 
1125 
1126 
1127 
1128 
1129 
1130 
1131 
1132 
1133 
1134 
1135 
1136 
1137 
1138 
1139 
1140 
1141 
1142 
1143 
1144 
1145 
1146 
1147 
1148 
1149 
1150 
1151 
1152 
1153 
1154 
1155 
1156 
1157 
1158 
1159 
1160 
1161 
1162 
1163 
1164 
1165 
1166 
1167 
1168 
1169 
1170 
1171 
1172 
1173 
1174 
1175 
1176 
1177 
1178 
1179 
1180 
1181 
1182 
1183 
1184 
1185 
1186 
1187 
1188 
1189 
1190 
1191 
1192 
1193 
1194 
1195 
1196 
1197 
1198 
1199 
1200 
1201 
1202 
1203 
1204 
1205 
1206 
1207 
1208 
1209 
1210 
1211 
1212 
1213 
1214 
1215 
1216 
1217 
1218 
1219 
1220 
1221 
1222 
1223 
1224 
1225 
1226 
1227 
1228 
1229 
1230 
1231 
1232 
1233 
1234 
1235 
1236 
1237 
1238 
1239 
1240 
1241 
1242 
1243 
1244 
1245 
1246 
1247 
1248 
1249 
1250 
1251 
1252 
1253 
1254 
1255 
1256 
1257 
1258 
1259 
1260 
1261 
1262 
1263 
1264 
1265 
1266 
1267 
1268 
1269 
1270 
1271 
1272 
1273 
1274 
1275 
1276 
1277 
1278 
1279 
1280 
1281 
1282 
1283 
1284 
1285 
1286 
1287 
1288 
1289 
1290 
1291 
1292 
1293 
1294 
1295 
1296 
1297 
1298 
1299 
1300 
1301 
1302 
1303 
1304 
1305 
1306 
1307 
1308 
1309 
1310 
1311 
1312 
1313 
1314 
1315 
1316 
1317 
1318 
1319 
1320 
1321 
1322 
1323 
1324 
1325 
1326 
1327 
1328 
1329 
CELL_DATA 6224
SCALARS GLOBAL_ID int 1
LOOKUP_TABLE default
153 
152 
151 
150 
149 
148 
147 
146 
145 
144 
143 
142 
141 
140 
139 
138 
137 
136 
135 
134 
133 
132 
131 
130 
129 
128 
127 
126 
125 
124 
123 
122 
121 
120 
119 
118 
117 
116 
115 
114 
113 
112 
111 
110 
109 
108 
107 
106 
105 
104 
103 
102 
101 
100 
99 
98 
97 
96 
95 
94 
93 
92 
91 
90 
89 
88 
87 
86 
85 
84 
83 
82 
81 
80 
79 
78 
77 
76 
75 
74 
73 
72 
71 
70 
69 
68 
67 
66 
65 
64 
63 
62 
61 
60 
59 
58 
57 
56 
55 
54 
53 
52 
51 
50 
49 
48 
47 
46 
45 
44 
43 
42 
199 
198 
197 
196 
195 
194 
193 
192 
191 
190 
189 
188 
187 
186 
185 
184 
183 
182 
181 
180 
179 
178 
177 
176 
175 
174 
173 
172 
171 
170 
169 
168 
167 
166 
165 
164 
163 
162 
161 
160 
159 
158 
157 
156 
155 
154 
3807 
3806 
3805 
3804 
3803 
3802 
3801 
3800 
3799 
3798 
3797 
3796 
3795 
3794 
3793 
3792 
3791 
3790 
3789 
3788 
3787 
3786 
3785 
3784 
3783 
3782 
3781 
3780 
3779 
3778 
3777 
3776 
3775 
3774 
3773 
3772 
3771 
3770 
3769 
3768 
3767 
3766 
3765 
3764 
3763 
3762 
3761 
3760 
3759 
3758 
3757 
3756 
3755 
3754 
3753 
3752 
3751 
3750 
3749 
3748 
3747 
3746 
3745 
3744 
3743 
3742 
3741 
3740 
3739 
3738 
3737 
3736 
3735 
3734 
3733 
3732 
3731 
3730 
3729 
3728 
3727 
3726 
3725 
3724 
3723 
3722 
3721 
3720 
3719 
3718 
3717 
3716 
3715 
3714 
3713 
3712 
3711 
3710 
3709 
3708 
3707 
3706 
3705 
3704 
3703 
3702 
3701 
3700 
3699 
3698 
3697 
3696 
3695 
3694 
3693 
3692 
3691 
3690 
3689 
3688 
3687 
3686 
3685 
3684 
3683 
3682 
3681 
3680 
3679 
3678 
3677 
3676 
3675 
3674 
3673 
3672 
3671 
3670 
3669 
3668 
3667 
3666 
3665 
3664 
3663 
3662 
3661 
3660 
3659 
3658 
3657 
3656 
3655 
3654 
3653 
3652 
3651 
3650 
3649 
3648 
3647 
3646 
3645 
3644 
3643 
3642 
3641 
3640 
3639 
3638 
3637 
3636 
3635 
3634 
3633 
3632 
3631 
3630 
3629 
3628 
3627 
3626 
3625 
3624 
3623 
3622 
3621 
3620 
3619 
3618 
3617 
3616 
3615 
3614 
3613 
3612 
3611 
3610 
3609 
3608 
3607 
3606 
3605 
3604 
3603 
3602 
3601 
3600 
3599 
3598 
3597 
3596 
3595 
3594 
3593 
3592 
3591 
3590 
3589 
3588 
3587 
3586 
3585 
3584 
3583 
3582 
3581 
3580 
3579 
3578 
3577 
3576 
3575 
3574 
3573 
3572 
3571 
3570 
3569 
3568 
3567 
3566 
3565 
3564 
3563 
3562 
3561 
3560 
3559 
3558 
3557 
3556 
3555 
3554 
3553 
3552 
3551 
3550 
3549 
3548 
3547 
3546 
3545 
3544 
3543 
3542 
3541 
3540 
3539 
3538 
3537 
3536 
3535 
3534 
3533 
3532 
3531 
3530 
3529 
3528 
3527 
3526 
3525 
3524 
3523 
3522 
3521 
3520 
3519 
3518 
3517 
3516 
3515 
3514 
3513 
3512 
3511 
3510 
3509 
3508 
3507 
3506 
3505 
3504 
3503 
3502 
3501 
3500 
3499 
3498 
3497 
3496 
3495 
3494 
3493 
3492 
3491 
3490 
3489 
3488 
3487 
3486 
3485 
3484 
3483 
3482 
3481 
3480 
3479 
3478 
3477 
3476 
3475 
3474 
3473 
3472 
3471 
3470 
3469 
3468 
3467 
3466 
3465 
3464 
3463 
3462 
3461 
3460 
3459 
3458 
3457 
3456 
3455 
3454 
3453 
3452 
3451 
3450 
3449 
3448 
3447 
3446 
3445 
3444 
3443 
3442 
3441 
3440 
3439 
3438 
3437 
3436 
3435 
3434 
3433 
3432 
3431 
3430 
3429 
3428 
3427 
3426 
3425 
3424 
3423 
3422 
3421 
3420 
3419 
3418 
3417 
3416 
3415 
3414 
3413 
3412 
3411 
3410 
3409 
3408 
3407 
3406 
3405 
3404 
3403 
3402 
3401 
3400 
3399 
3398 
3397 
3396 
3395 
3394 
3393 
3392 
3391 
3390 
3389 
3388 
3387 
3386 
3385 
3384 
3383 
3382 
3381 
3380 
3379 
3378 
3377 
3376 
3375 
3374 
3373 
3372 
3371 
3370 
3369 
3368 
3367 
3366 
3365 
3364 
3363 
3362 
3361 
3360 
3359 
3358 
3357 
3356 
3355 
3354 
3353 
3352 
3351 
3350 
3349 
3348 
3347 
3346 
3345 
3344 
3343 
3342 
3341 
3340 
3339 
3338 
3337 
3336 
3335 
3334 
3333 
3332 
3331 
3330 
3329 
3328 
3327 
3326 
3325 
3324 
3323 
3322 
3321 
3320 
3319 
3318 
3317 
3316 
3315 
3314 
3313 
3312 
3311 
3310 
3309 
3308 
3307 
3306 
3305 
3304 
3303 
3302 
3301 
3300 
3299 
3298 
3297 
3296 
3295 
3294 
3293 
3292 
3291 
3290 
3289 
3288 
3287 
3286 
3285 
3284 
3283 
3282 
3281 
3280 
3279 
3278 
3277 
3276 
3275 
3274 
3273 
3272 
3271 
3270 
3269 
3268 
3267 
3266 
3265 
3264 
3263 
3262 
3261 
3260 
3259 
3258 
3257 
3256 
3255 
3254 
3253 
3252 
3251 
3250 
3249 
3248 
3247 
3246 
3245 
3244 
3243 
3242 
3241 
3240 
3239 
3238 
3237 
3236 
3235 
3234 
3233 
3232 
3231 
3230 
3229 
3228 
3227 
3226 
3225 
3224 
3223 
3222 
3221 
3220 
3219 
3218 
3217 
3216 
3215 
3214 
3213 
3212 
3211 
3210 
3209 
3208 
3207 
3206 
3205 
3204 
3203 
3202 
3201 
3200 
3199 
3198 
3197 
3196 
3195 
3194 
3193 
3192 
3191 
3190 
3189 
3188 
3187 
3186 
3185 
3184 
3183 
3182 
3181 
3180 
3179 
3178 
3177 
3176 
3175 
3174 
3173 
3172 
3171 
3170 
3169 
3168 
3167 
3166 
3165 
3164 
3163 
3162 
3161 
3160 
3159 
3158 
3157 
3156 
3155 
3154 
3153 
3152 
3151 
3150 
3149 
3148 
3147 
3146 
3145 
3144 
3143 
3142 
3141 
3140 
3139 
3138 
3137 
3136 
3135 
3134 
3133 
3132 
3131 
3130 
3129 
3128 
3127 
3126 
3125 
3124 
3123 
3122 
3121 
3120 
3119 
3118 
3117 
3116 
3115 
3114 
3113 
3112 
3111 
3110 
3109 
3108 
3107 
3106 
3105 
3104 
3103 
3102 
3101 
3100 
3099 
3098 
3097 
3096 
3095 
3094 
3093 
3092 
3091 
3090 
3089 
3088 
3087 
3086 
3085 
3084 
3083 
3082 
3081 
3080 
3079 
3078 
3077 
3076 
3075 
3074 
3073 
3072 
3071 
3070 
3069 
3068 
3067 
3066 
3065 
3064 
3063 
3062 
3061 
3060 
3059 
3058 
3057 
3056 
3055 
3054 
3053 
3052 
3051 
3050 
3049 
3048 
3047 
3046 
3045 
3044 
3043 
3042 
3041 
3040 
3039 
3038 
3037 
3036 
3035 
3034 
3033 
3032 
3031 
3030 
3029 
3028 
3027 
3026 
3025 
3024 
3023 
3022 
3021 
3020 
3019 
3018 
3017 
3016 
3015 
3014 
3013 
3012 
3011 
3010 
3009 
3008 
3007 
3006 
3005 
3004 
3003 
3002 
3001 
3000 
2999 
2998 
2997 
2996 
2995 
2994 
2993 
2992 
2991 
2990 
2989 
2988 
2987 
2986 
2985 
2984 
2983 
2982 
2981 
2980 
2979 
2978 
2977 
2976 
2975 
2974 
2973 
2972 
2971 
2970 
2969 
2968 
2967 
2966 
2965 
2964 
2963 
2962 
2961 
2960 
2959 
2958 
2957 
2956 
2955 
2954 
2953 
2952 
2951 
2950 
2949 
2948 
2947 
2946 
2945 
2944 
2943 
2942 
2941 
2940 
2939 
2938 
2937 
2936 
2935 
2934 
2933 
2932 
2931 
2930 
2929 
2928 
2927 
2926 
2925 
2924 
2923 
2922 
2921 
2920 
2919 
2918 
2917 
2916 
2915 
2914 
2913 
2912 
2911 
2910 
2909 
2908 
2907 
2906 
2905 
2904 
2903 
2902 
2901 
2900 
2899 
2898 
2897 
2896 
2895 
2894 
2893 
2892 
2891 
2890 
2889 
2888 
2887 
2886 
2885 
2884 
2883 
2882 
2881 
2880 
2879 
2878 
2877 
2876 
2875 
2874 
2873 
2872 
2871 
2870 
2869 
2868 
2867 
2866 
2865 
2864 
2863 
2862 
2861 
2860 
2859 
2858 
2857 
2856 
2855 
2854 
2853 
2852 
2851 
2850 
2849 
2848 
2847 
2846 
2845 
2844 
2843 
2842 
2841 
2840 
2839 
2838 
2837 
2836 
2835 
2834 
2833 
2832 
2831 
2830 
2829 
2828 
2827 
2826 
2825 
2824 
2823 
2822 
2821 
2820 
2819 
2818 
2817 
2816 
2815 
2814 
2813 
2812 
2811 
2810 
2809 
2808 
2807 
2806 
2805 
2804 
2803 
2802 
2801 
2800 
2799 
2798 
2797 
2796 
2795 
2794 
2793 
2792 
2791 
2790 
2789 
2788 
2787 
2786 
2785 
2784 
2783 
2782 
2781 
2780 
2779 
2778 
2777 
2776 
2775 
2774 
2773 
2772 
2771 
2770 
2769 
2768 
2767 
2766 
2765 
2764 
2763 
2762 
2761 
2760 
2759 
2758 
2757 
2756 
2755 
2754 
2753 
2752 
2751 
2750 
2749 
2748 
2747 
2746 
2745 
2744 
2743 
2742 
2741 
2740 
2739 
2738 
2737 
2736 
2735 
2734 
2733 
2732 
2731 
2730 
2729 
2728 
2727 
2726 
2725 
2724 
2723 
2722 
2721 
2720 
2719 
2718 
2717 
2716 
2715 
2714 
2713 
2712 
2711 
2710 
2709 
2708 
2707 
2706 
2705 
2704 
2703 
2702 
2701 
2700 
2699 
2698 
2697 
2696 
2695 
2694 
2693 
2692 
2691 
2690 
2689 
2688 
2687 
2686 
2685 
2684 
2683 
2682 
2681 
2680 
2679 
2678 
2677 
2676 
2675 
2674 
2673 
2672 
2671 
2670 
2669 
2668 
2667 
2666 
2665 
2664 
2663 
2662 
2661 
2660 
2659 
2658 
2657 
2656 
2655 
2654 
2653 
2652 
2651 
2650 
2649 
2648 
2647 
2646 
2645 
2644 
2643 
2642 
2641 
2640 
2639 
2638 
2637 
2636 
2635 
2634 
2633 
2632 
2631 
2630 
2629 
2628 
2627 
2626 
2625 
2624 
2623 
2622 
2621 
2620 
2619 
2618 
2617 
2616 
2615 
2614 
2613 
2612 
2611 
2610 
2609 
2608 
2607 
2606 
2605 
2604 
2603 
2602 
2601 
2600 
2599 
2598 
2597 
2596 
2595 
2594 
2593 
2592 
2591 
2590 
2589 
2588 
2587 
2586 
2585 
2584 
2583 
2582 
2581 
2580 
2579 
2578 
2577 
2576 
2575 
2574 
2573 
2572 
2571 
2570 
2569 
2568 
2567 
2566 
2565 
2564 
2563 
2562 
2561 
2560 
2559 
2558 
2557 
2556 
2555 
2554 
2553 
2552 
2551 
2550 
2549 
2548 
2547 
2546 
2545 
2544 
2543 
2542 
2541 
2540 
2539 
2538 
2537 
2536 
2535 
2534 
2533 
2532 
2531 
2530 
2529 
2528 
2527 
2526 
2525 
2524 
2523 
2522 
2521 
2520 
2519 
2518 
2517 
2516 
2515 
2514 
2513 
2512 
2511 
2510 
2509 
2508 
2507 
2506 
2505 
2504 
2503 
2502 
2501 
2500 
2499 
2498 
2497 
2496 
2495 
2494 
2493 
2492 
2491 
2490 
2489 
2488 
2487 
2486 
2485 
2484 
2483 
2482 
2481 
2480 
2479 
2478 
2477 
2476 
2475 
2474 
2473 
2472 
2471 
2470 
2469 
2468 
2467 
2466 
2465 
2464 
2463 
2462 
2461 
2460 
2459 
2458 
2457 
2456 
2455 
2454 
2453 
2452 
2451 
2450 
2449 
2448 
2447 
2446 
2445 
2444 
2443 
2442 
2441 
2440 
2439 
2438 
2437 
2436 
2435 
2434 
2433 
2432 
2431 
2430 
2429 
2428 
2427 
2426 
2425 
2424 
2423 
2422 
2421 
2420 
2419 
2418 
2417 
2416 
2415 
2414 
2413 
2412 
2411 
2410 
2409 
2408 
2407 
2406 
2405 
2404 
2403 
2402 
2401 
2400 
2399 
2398 
2397 
2396 
2395 
2394 
2393 
2392 
2391 
2390 
2389 
2388 
2387 
2386 
2385 
2384 
2383 
2382 
2381 
2380 
2379 
2378 
2377 
2376 
2375 
2374 
2373 
2372 
2371 
2370 
2369 
2368 
2367 
2366 
2365 
2364 
2363 
2362 
2361 
2360 
2359 
2358 
2357 
2356 
2355 
2354 
2353 
2352 
2351 
2350 
2349 
2348 
2347 
2346 
2345 
2344 
2343 
2342 
2341 
2340 
2339 
2338 
2337 
2336 
2335 
2334 
2333 
2332 
2331 
2330 
2329 
2328 
2327 
2326 
2325 
2324 
2323 
2322 
2321 
2320 
2319 
2318 
2317 
2316 
2315 
2314 
2313 
2312 
2311 
2310 
2309 
2308 
2307 
2306 
2305 
2304 
2303 
2302 
2301 
2300 
2299 
2298 
2297 
2296 
2295 
2294 
2293 
2292 
2291 
2290 
2289 
2288 
2287 
2286 
2285 
2284 
2283 
2282 
2281 
2280 
2279 
2278 
2277 
2276 
2275 
2274 
2273 
2272 
2271 
2270 
2269 
2268 
2267 
2266 
2265 
2264 
2263 
2262 
2261 
2260 
2259 
2258 
2257 
2256 
2255 
2254 
2253 
2252 
2251 
2250 
2249 
2248 
2247 
2246 
2245 
2244 
2243 
2242 
2241 
2240 
2239 
2238 
2237 
2236 
2235 
2234 
2233 
2232 
2231 
2230 
2229 
2228 
2227 
2226 
2225 
2224 
2223 
2222 
2221 
2220 
2219 
2218 
2217 
2216 
2215 
2214 
2213 
2212 
2211 
2210 
2209 
2208 
2207 
2206 
2205 
2204 
2203 
2202 
2201 
2200 
2199 
2198 
2197 
2196 
2195 
2194 
2193 
2192 
2191 
2190 
2189 
2188 
2187 
2186 
2185 
2184 
2183 
2182 
2181 
2180 
2179 
2178 
2177 
2176 
2175 
2174 
2173 
2172 
2171 
2170 
2169 
2168 
2167 
2166 
2165 
2164 
2163 
2162 
2161 
2160 
2159 
2158 
2157 
2156 
2155 
2154 
2153 
2152 
2151 
2150 
2149 
2148 
2147 
2146 
2145 
2144 
2143 
2142 
2141 
2140 
2139 
2138 
2137 
2136 
2135 
2134 
2133 
2132 
2131 
2130 
2129 
2128 
2127 
2126 
2125 
2124 
2123 
2122 
2121 
2120 
2119 
2118 
2117 
2116 
2115 
2114 
2113 
2112 
2111 
2110 
2109 
2108 
2107 
2106 
2105 
2104 
2103 
2102 
2101 
2100 
2099 
2098 
2097 
2096 
2095 
2094 
2093 
2092 
2091 
2090 
2089 
2088 
2087 
2086 
2085 
2084 
2083 
2082 
2081 
2080 
2079 
2078 
2077 
2076 
2075 
2074 
2073 
2072 
2071 
2070 
2069 
2068 
2067 
2066 
2065 
2064 
2063 
2062 
2061 
2060 
2059 
2058 
2057 
2056 
2055 
2054 
2053 
2052 
2051 
2050 
2049 
2048 
2047 
2046 
2045 
2044 
2043 
2042 
2041 
2040 
2039 
2038 
2037 
2036 
2035 
2034 
2033 
2032 
2031 
2030 
2029 
2028 
2027 
2026 
2025 
2024 
2023 
2022 
2021 
2020 
2019 
2018 
2017 
2016 
2015 
2014 
2013 
2012 
2011 
2010 
2009 
2008 
2007 
2006 
2005 
2004 
2003 
2002 
2001 
2000 
1999 
1998 
1997 
1996 
1995 
1994 
1993 
1992 
1991 
1990 
1989 
1988 
1987 
1986 
1985 
1984 
1983 
1982 
1981 
1980 
1979 
1978 
1977 
1976 
1975 
1974 
1973 
1972 
1971 
1970 
1969 
1968 
1967 
1966 
1965 
1964 
1963 
1962 
1961 
1960 
1959 
1958 
1957 
1956 
1955 
1954 
1953 
1952 
1951 
1950 
1949 
1948 
1947 
1946 
1945 
1944 
1943 
1942 
1941 
1940 
1939 
1938 
1937 
1936 
1935 
1934 
1933 
1932 
1931 
1930 
1929 
1928 
1927 
1926 
1925 
1924 
1923 
1922 
1921 
1920 
1919 
1918 
1917 
1916 
1915 
1914 
1913 
1912 
1911 
1910 
1909 
1908 
1907 
1906 
1905 
1904 
1903 
1902 
1901 
1900 
1899 
1898 
1897 
1896 
1895 
1894 
1893 
1892 
1891 
1890 
1889 
1888 
1887 
1886 
1885 
1884 
1883 
1882 
1881 
1880 
1879 
1878 
1877 
1876 
1875 
1874 
1873 
1872 
1871 
1870 
1869 
1868 
1867 
1866 
1865 
1864 
1863 
1862 
1861 
1860 
1859 
1858 
1857 
1856 
1855 
1854 
1853 
1852 
1851 
1850 
1849 
1848 
1847 
1846 
1845 
1844 
1843 
1842 
1841 
1840 
1839 
1838 
1837 
1836 
1835 
1834 
1833 
1832 
1831 
1830 
1829 
1828 
1827 
1826 
1825 
1824 
1823 
1822 
1821 
1820 
1819 
1818 
1817 
1816 
1815 
1814 
1813 
1812 
1811 
1810 
1809 
1808 
1807 
1806 
1805 
1804 
1803 
1802 
1801 
1800 
1799 
1798 
1797 
1796 
1795 
1794 
1793 
1792 
1791 
1790 
1789 
1788 
1787 
1786 
1785 
1784 
1783 
1782 
1781 
1780 
1779 
1778 
1777 
1776 
1775 
1774 
1773 
1772 
1771 
1770 
1769 
1768 
1767 
1766 
1765 
1764 
1763 
1762 
1761 
1760 
1759 
1758 
1757 
1756 
1755 
1754 
1753 
1752 
1751 
1750 